4500
Atoms. Timestep: 10000000
N 1.255140 1.936150 1.799030
N 2.035890 3.350880 1.197120
N 1.683680 2.775030 1.932440
N 1.343690 1.303930 30.844000
N 1.893600 1.696430 31.916100
N 2.556810 1.066390 31.658400
N 2.615630 1.888310 32.597800
N 1.901450 2.531090 32.584500
N 2.748170 2.840250 32.963000
N 1.714120 33.009400 31.445600
N 14.743900 1.406800 25.917400
N 14.711600 1.833580 26.826300
N 16.349100 1.587600 26.830100
N 15.303000 2.241820 27.425200
N 15.543800 1.297520 26.431100
N 16.172500 2.091630 27.778500
N 16.018000 2.786220 28.392700
N 14.808400 23.295000 7.441570
N 16.178800 22.594400 7.541770
N 14.063600 23.674800 7.878320
N 15.303700 22.681800 7.950700
N 14.056000 24.430200 8.481800
N 16.796100 24.303400 9.492480
N 14.568900 21.161800 11.263000
N 16.436000 21.677400 10.837800
N 16.176000 22.950200 10.938600
N 16.357400 22.156600 10.045700
N 15.627100 22.200800 10.816100
N 15.469000 21.714400 12.613000
N 15.120000 22.075800 11.754500
N 14.605200 22.147000 12.509900
N 14.123000 22.024900 11.550600
N 15.586100 22.673200 12.714600
N 14.936600 23.374900 12.792400
N 15.662600 23.842600 12.356900
N 16.155600 23.987300 13.158900
N 16.487000 23.514000 11.658800
N 16.826000 23.858100 12.499200
N 16.712500 26.011800 6.569680
N 16.862100 25.139600 6.855560
N 16.667100 25.146200 8.907720
N 16.307200 25.034800 9.887460
N 16.809400 32.577500 27.097400
N 22.237900 1.775410 1.409100
N 22.403000 3.278200 2.472050
N 22.132900 3.661490 1.624100
N 22.504900 2.621060 0.950167
N 23.760400 3.603590 1.040530
N 23.000700 3.999490 1.930260
N 22.072800 5.079600 0.999751
N 24.535800 5.071120 0.868229
N 23.458800 4.631650 1.415400
N 21.796700 5.712230 2.274110
N 23.685000 5.826100 1.887480
N 23.790500 5.676680 0.907863
N 24.565200 5.952650 1.459550
N 24.752000 6.400900 2.267370
N 24.171500 7.631290 0.985754
N 24.354900 7.768660 1.872160
N 21.273600 1.149690 3.189910
N 22.426300 2.113610 3.819660
N 23.356100 1.619990 4.138640
N 24.246000 1.213080 4.170060
N 21.676500 5.383220 3.348490
N 22.539200 4.124840 2.902230
N 22.508700 5.132240 2.978290
N 23.086600 4.602600 3.538170
N 21.116400 5.950940 2.842530
N 22.992200 2.464420 4.456900
N 21.811200 2.700130 4.342540
N 22.418700 3.253840 4.937610
N 21.482500 4.552320 5.948500
N 21.647700 5.474340 5.885430
N 21.485800 4.902670 5.005200
N 21.937700 4.071200 4.908770
N 20.865500 5.784790 5.426280
N 20.811900 6.742330 5.147610
N 20.928200 0.805599 25.412300
N 20.907800 2.238040 25.334900
N 21.641800 1.730000 25.601200
N 19.846100 4.870370 25.820000
N 20.157700 4.438330 24.841300
N 20.697700 5.177400 24.553300
N 20.743600 5.009310 25.519300
N 16.971700 0.948371 26.434000
N 19.821100 1.238760 27.044900
N 19.763400 2.085450 26.565100
N 20.860200 1.200360 26.321700
N 20.886100 2.297980 26.296200
N 22.497100 1.931380 27.654700
N 22.501700 1.919330 26.126000
N 22.804300 1.306260 27.068300
N 22.093400 0.927788 26.164200
N 23.608500 1.591160 25.950700
N 24.159800 1.352460 26.714000
N 24.357300 2.128680 26.053400
N 23.523400 2.054720 26.975700
N 20.163000 2.898800 26.238000
N 21.194100 3.544760 26.572400
N 21.853600 2.563770 26.044300
N 22.632500 2.484140 26.889200
N 22.071500 3.622040 26.898600
N 20.424000 4.076660 25.952300
N 20.682100 4.757350 26.537500
N 20.509200 4.112430 27.171700
N 22.662900 4.339140 27.102700
N 17.872100 2.242760 28.938800
N 19.585500 1.091640 28.294600
N 18.726400 1.504410 29.269800
N 18.627300 1.239440 28.310700
N 19.726700 1.851440 27.760400
N 22.558800 1.435010 28.654800
N 22.679700 0.844792 27.882700
N 16.988400 2.626540 28.634200
N 22.422100 2.376100 28.686300
N 22.258000 3.422930 28.581900
N 22.161700 3.893090 29.386300
N 22.307400 2.939890 27.804500
N 22.798400 4.254700 28.708700
N 22.209400 4.273900 27.937100
N 24.850500 4.138840 28.102400
N 18.368900 2.324480 29.764900
N 18.831100 1.217100 30.106000
N 19.247500 1.886720 30.828100
N 19.341900 2.112370 29.904700
N 18.675200 0.913714 31.180400
N 20.371600 1.263070 30.818700
N 20.496200 1.612910 29.989000
N 20.183600 2.242750 30.722500
N 23.243900 1.284230 29.496800
N 22.410700 0.804025 29.643800
N 22.338200 1.799260 29.548200
N 22.326500 2.333010 30.313300
N 22.175200 2.862000 29.492200
N 22.850700 3.381060 29.957400
N 23.526600 3.825980 30.444600
N 23.209400 4.235000 29.597500
N 22.883600 4.131330 31.199100
N 23.318600 4.823570 30.635700
N 23.918100 4.732270 29.935000
N 18.594100 0.886015 32.132400
N 22.381600 1.531010 32.817900
N 23.191800 3.110280 32.787900
N 23.930700 3.661520 31.319200
N 21.850800 4.998760 32.465200
N 21.972100 4.266470 31.627100
N 22.628800 4.956570 31.851700
N 22.976200 4.902840 32.928000
N 24.103600 4.268190 32.789900
N 24.604200 4.132570 31.842000
N 24.188200 6.491230 32.926700
N 24.813200 7.067660 32.415600
N 24.472200 8.010850 32.365400
N 21.375100 14.601900 0.871158
N 20.210200 14.451100 1.391850
N 20.283400 15.071600 2.082490
N 20.758200 13.870900 0.914275
N 20.944900 15.172900 4.029800
N 20.688500 15.781000 2.610740
N 20.389000 15.774200 3.549860
N 19.313400 15.655900 4.723640
N 20.098700 16.240000 4.501670
N 21.070500 16.083300 4.410540
N 20.203900 15.356400 4.897410
N 24.850400 9.688860 29.527500
N 24.970400 10.226400 30.525900
N 23.172500 11.311600 30.915600
N 24.034500 11.597900 30.496600
N 24.690100 11.139500 29.964500
N 22.705900 12.087800 31.257200
N 22.605000 13.648200 30.921800
N 24.740100 8.831630 31.539100
N 22.498800 12.990000 31.612600
N 22.028000 14.806300 32.568800
N 22.257500 13.877200 32.549700
N 22.503000 14.197200 31.698900
N 22.883500 21.426900 1.985590
N 23.260400 22.334400 2.146220
N 23.698600 22.632400 1.387280
N 24.632500 22.886600 1.424690
N 20.945600 24.604400 1.070270
N 20.722300 24.961800 1.951950
N 22.979500 21.739700 2.861250
N 22.927000 20.755300 2.657420
N 22.336400 20.795800 3.407540
N 22.669800 21.529300 3.901520
N 18.722800 22.654300 3.024650
N 19.643800 22.751500 2.822740
N 20.977800 22.118100 3.237100
N 20.345200 22.115100 2.586750
N 20.650600 22.277600 4.138230
N 19.006600 23.469200 3.440530
N 19.789600 23.996000 3.464520
N 21.580300 24.793200 2.604780
N 21.949500 23.998400 3.058300
N 22.608100 23.455500 3.488890
N 22.745800 18.875600 5.872580
N 20.277400 21.631800 4.790730
N 23.071700 21.205900 5.673720
N 22.807300 21.274200 4.753640
N 19.855700 22.827500 4.965170
N 21.722900 22.321000 5.935830
N 20.611200 22.300700 5.363900
N 20.228700 23.021600 6.116810
N 22.285300 23.042100 5.693050
N 22.388300 23.131300 4.338400
N 22.635700 21.979700 5.956070
N 22.591600 22.482500 4.967830
N 19.346500 23.428700 5.472320
N 21.280000 24.618700 5.519930
N 20.881100 24.577400 4.675530
N 22.807200 24.777700 5.415510
N 23.816700 24.793700 5.446350
N 22.925100 18.436700 6.689610
N 22.642000 18.742500 7.587520
N 22.749100 19.525900 7.063190
N 24.044300 19.694900 7.019800
N 23.442000 19.363600 6.337130
N 19.759100 21.186800 7.018900
N 19.001700 21.540300 6.566220
N 19.144000 21.730600 7.566730
N 22.480000 20.222000 6.504730
N 21.874500 21.020900 7.254370
N 22.719400 21.087800 6.858310
N 23.404200 20.351100 7.055920
N 24.191700 20.925500 6.847170
N 17.800600 22.662000 7.391230
N 18.317500 22.156100 6.831200
N 16.929300 23.155100 7.813460
N 20.281000 23.130600 7.137950
N 20.985600 22.718600 7.593620
N 20.888600 22.549000 6.597570
N 21.687400 22.117800 7.116090
N 22.139000 22.953700 6.923880
N 22.746200 22.109800 7.243760
N 23.020600 22.807000 6.556600
N 23.390600 21.793900 6.668630
N 24.061500 22.428000 6.415430
N 23.952800 23.236000 6.937390
N 23.589700 22.476100 7.465160
N 24.631100 22.035200 7.399700
N 17.617200 24.954000 7.755780
N 19.487100 23.495300 6.432220
N 21.525000 24.667400 7.590330
N 22.948200 23.695200 6.832410
N 23.176300 24.829500 6.763680
N 22.123400 24.068700 7.155000
N 22.975400 24.556800 7.688550
N 23.791700 24.091500 7.370030
N 18.488600 21.248800 8.370510
N 21.768600 21.072100 8.734100
N 22.194400 21.528100 8.003040
N 23.246400 21.572200 8.756260
N 22.294000 21.033800 9.534060
N 24.075200 21.015900 8.619240
N 18.425700 22.367400 8.021620
N 16.986900 22.378100 9.104290
N 17.780300 21.925800 8.872830
N 17.757200 22.935400 8.379190
N 17.910100 22.979300 9.447510
N 16.984000 22.240100 8.184860
N 18.565400 22.502700 9.023620
N 19.204400 21.932400 8.500030
N 22.858700 22.260600 8.303020
N 21.770200 22.490400 8.088860
N 22.198700 22.013800 8.958090
N 24.085400 21.828600 8.190090
N 23.507300 23.306300 8.333650
N 23.872400 22.553700 8.826800
N 24.263100 22.829800 8.002210
N 17.088800 23.539300 8.679830
N 17.182400 24.432000 8.450590
N 17.899400 24.820800 9.351440
N 21.841800 24.664900 8.453770
N 24.187600 23.507000 8.974550
N 23.591500 24.043800 9.490020
N 21.542900 21.496700 9.881580
N 17.873100 23.144100 10.572900
N 17.280800 22.435800 10.255700
N 21.391300 22.296500 10.423300
N 22.057200 22.945600 10.520200
N 22.386700 22.205000 9.936960
N 17.236200 24.613800 10.279300
N 17.675900 23.847900 9.737250
N 18.200100 24.027700 10.468200
N 17.727600 24.846900 11.460100
N 22.134300 23.925500 10.044200
N 22.755300 24.671100 9.871520
N 20.908600 23.681900 21.042400
N 21.349800 24.363100 21.524800
N 21.867200 23.495000 21.180700
N 23.978400 24.891600 22.210600
N 23.200700 21.003400 23.637400
N 24.086300 20.697200 23.840400
N 23.995500 21.713300 23.188600
N 20.848300 23.090600 23.764900
N 23.152100 22.073600 23.554700
N 24.913700 22.730500 23.914700
N 24.221000 22.024600 22.335600
N 24.006000 22.737100 23.597000
N 24.297100 23.241700 22.354600
N 24.866600 22.412400 22.972900
N 21.680100 23.791900 23.136200
N 21.319900 23.833800 24.046300
N 20.776800 24.971000 23.897700
N 21.302900 23.815700 22.286300
N 22.662500 24.317100 23.530700
N 21.821900 24.722900 23.826900
N 23.695100 23.558800 23.969900
N 24.560400 23.571200 23.250600
N 23.983800 24.471300 23.811300
N 24.555900 24.144700 22.285300
N 22.962000 21.589500 24.306400
N 23.996700 21.631800 24.191700
N 23.847600 21.603400 25.345400
N 21.255600 22.673600 24.512400
N 20.424800 23.134200 24.904700
N 22.950000 21.808700 25.384600
N 24.317300 22.274200 24.819000
N 23.508900 22.470100 25.858100
N 21.677400 23.507900 25.855100
N 20.846600 24.845300 24.844100
N 20.805300 23.926000 25.206600
N 21.686700 24.464100 24.799700
N 22.436700 23.868800 24.357400
N 21.803400 23.391300 24.937600
N 22.379900 24.350800 25.446200
N 23.423500 24.924600 24.460300
N 20.649600 23.241000 27.188400
N 21.200600 22.762400 26.231100
N 22.637700 22.963500 27.420100
N 21.821400 23.235700 26.784200
N 22.757700 23.118900 26.482700
N 22.959800 21.944200 26.457800
N 19.150200 24.196500 27.177400
N 20.101500 23.990400 27.102100
N 19.623000 24.931500 26.853900
N 20.477400 23.436100 26.007800
N 20.171400 24.314900 26.094800
N 23.212000 23.690200 27.334800
N 24.491400 24.693200 26.734600
N 23.687800 24.518100 27.196800
N 20.342500 23.539400 28.051500
N 20.393700 24.379100 28.539700
N 20.157400 24.347500 29.416300
N 18.337800 24.421700 29.615700
N 17.828600 24.433200 30.356700
N 20.323400 23.510600 29.873500
N 21.183100 23.380300 30.377100
N 21.522200 24.192500 30.774000
N 22.324000 24.292000 31.249800
N 24.345000 24.243700 30.847400
N 24.747400 22.567300 32.875800
N 17.372500 24.525000 31.303200
N 17.934200 24.005200 31.877400
N 19.493600 23.751900 32.724600
N 18.755200 24.176100 32.289700
N 19.809500 24.615300 32.438300
N 21.418200 23.929500 32.968100
N 20.556600 23.938700 32.602400
N 22.681000 24.742300 32.244600
N 22.715200 23.798300 32.035700
N 24.868300 24.335900 31.667500
N 21.596800 25.259600 1.666170
N 20.967100 26.005700 1.139670
N 21.706100 25.533000 0.780467
N 22.579400 25.490000 2.014830
N 22.832900 26.049800 1.263030
N 20.122900 27.721400 1.552410
N 20.221500 26.820600 1.408140
N 21.044500 27.291300 1.975280
N 21.050800 27.857900 1.165990
N 21.388800 26.960600 0.836388
N 22.017100 27.544400 1.239080
N 21.857500 28.073400 2.040560
N 22.248000 27.223500 2.317700
N 24.872800 27.378200 2.311880
N 19.737100 28.700300 1.928460
N 19.931000 28.482200 1.052890
N 19.436600 29.619300 1.355990
N 19.707900 29.712800 2.245330
N 21.540300 28.965700 1.450410
N 21.731100 29.176000 2.397020
N 21.188900 29.783900 0.836998
N 20.888200 28.838700 0.765639
N 22.447800 28.668600 1.338510
N 22.273200 29.607300 1.767650
N 23.301900 29.596800 1.271970
N 18.684000 30.149300 1.117090
N 19.439300 30.887500 1.822120
N 21.348300 29.981700 1.772790
N 21.394600 30.910500 1.765860
N 21.934600 30.398300 0.915164
N 22.779500 30.393400 1.366700
N 23.139400 31.376800 1.267300
N 22.292400 31.098700 1.923790
N 23.566000 30.804600 1.998930
N 23.594700 30.620800 0.885115
N 24.261500 31.181700 1.169030
N 24.407300 31.057600 2.281040
N 19.841700 31.688600 1.441110
N 21.650100 32.888000 1.697420
N 22.340400 32.041100 2.468260
N 22.469600 33.037200 1.169000
N 23.903000 32.123200 0.819434
N 24.073500 32.045200 1.879020
N 23.467900 31.602200 2.430790
N 20.949000 25.403600 2.974330
N 20.589700 26.094200 3.569440
N 21.732100 26.079600 3.483050
N 21.873500 25.746200 2.554630
N 20.015400 27.915400 2.604440
N 19.536800 27.409100 3.266400
N 19.807500 27.046900 4.302980
N 20.439600 26.950300 2.614750
N 20.657700 27.128400 3.554650
N 21.586400 26.945400 2.925070
N 21.733000 26.911200 4.057750
N 20.307000 28.182100 3.665820
N 24.550300 26.653600 2.837540
N 24.439800 26.923900 3.871390
N 20.033800 28.823800 2.838890
N 19.927300 29.730100 3.180060
N 19.378900 28.337400 3.542930
N 20.285400 29.085900 3.981400
N 19.645700 30.607400 2.716100
N 19.328200 30.201300 3.742370
N 19.963100 30.905200 3.565950
N 21.629400 31.070600 2.846790
N 20.254800 29.975600 4.223390
N 21.795600 30.137600 2.647210
N 22.704700 30.870700 2.767620
N 19.573000 31.532100 2.988990
N 21.083300 32.645300 3.678600
N 21.789000 31.903300 3.263570
N 21.810600 32.811000 2.763030
N 22.783500 31.691900 3.333910
N 23.790100 32.857700 3.730110
N 24.632000 32.225700 3.235490
N 23.650800 31.498200 3.588920
N 24.086200 32.696600 2.595240
N 24.427900 31.691400 4.134940
N 24.917700 32.894600 3.845930
N 19.575500 25.717900 5.421110
N 20.103700 26.384100 5.011570
N 20.099600 24.977900 5.154430
N 20.852500 26.496000 4.425580
N 21.989500 25.157000 5.793670
N 22.719900 25.756200 5.248650
N 24.847700 25.029600 4.662810
N 23.533900 26.163300 5.517040
N 19.839900 27.459800 5.210780
N 19.758200 28.158200 4.550240
N 20.691200 27.454100 4.419270
N 21.652400 27.331800 4.858030
N 21.011500 27.909200 5.415080
N 22.372900 27.804100 5.265220
N 24.369500 26.927900 4.848760
N 24.355500 27.702200 5.440830
N 24.452300 27.788300 4.336510
N 24.220000 26.700500 5.839250
N 19.992400 28.447700 5.627240
N 20.599800 28.554300 4.775880
N 20.673700 29.467400 5.109240
N 20.867800 28.748500 5.804240
N 21.813800 28.323700 5.846150
N 23.542900 28.353800 5.712870
N 20.007500 30.878000 4.545130
N 19.830600 31.285000 5.445170
N 20.535300 30.413100 5.122500
N 20.391900 31.983700 5.183560
N 24.175100 32.486100 4.515260
N 17.005700 26.022500 7.521540
N 23.052300 25.706400 7.111530
N 22.862400 25.671500 6.206340
N 23.857700 26.298200 7.454360
N 24.867400 26.049000 6.218150
N 23.629300 26.328100 6.539190
N 24.926900 26.406400 7.901300
N 24.783500 25.825500 7.122110
N 21.239800 27.903200 6.573550
N 20.443700 27.458200 6.185420
N 22.936700 28.022600 7.160580
N 22.796100 27.908800 6.186700
N 24.558800 26.744700 7.005610
N 24.517000 27.917900 7.091450
N 24.890400 27.441500 6.219730
N 23.671600 28.432800 7.573370
N 23.971100 28.498800 6.595940
N 24.868700 30.086000 7.502290
N 17.298400 25.675000 8.405400
N 17.004200 25.608300 9.675780
N 18.312500 25.699400 9.375070
N 18.175200 24.995500 8.480810
N 21.978200 25.093500 9.402830
N 22.360200 25.292600 7.937950
N 23.208600 25.830200 8.191400
N 22.761400 25.302900 8.839420
N 24.517100 27.207700 8.208910
N 23.847400 27.774500 8.536610
N 23.351600 28.288900 9.427780
N 24.579100 28.219300 8.011940
N 24.603800 29.257800 7.944850
N 23.868900 28.774100 8.606340
N 24.308900 28.329800 9.366560
N 17.127000 25.321500 10.824900
N 18.110500 25.739000 11.389400
N 19.131600 26.007900 9.816710
N 18.915600 26.243000 11.439500
N 18.989700 26.655400 10.517200
N 23.216600 28.123400 10.330100
N 23.165700 27.868500 11.216300
N 23.988200 28.374400 11.045000
N 21.867300 29.729600 18.643600
N 22.711900 29.309300 18.516500
N 22.806900 27.916700 18.852400
N 22.764800 27.880200 19.772800
N 22.357300 29.566000 19.497500
N 23.115400 28.743700 19.137700
N 21.950200 29.791200 20.414300
N 21.391300 30.200500 19.730700
N 22.251400 27.978400 20.602600
N 23.639600 28.141000 21.825800
N 22.838400 28.313900 21.249300
N 22.993400 26.041700 22.876900
N 22.714200 25.218800 23.291300
N 23.079500 25.276500 22.315300
N 24.442300 26.661700 23.354100
N 24.149200 27.567300 23.326900
N 24.284400 28.067700 22.499700
N 22.903700 29.800200 23.894100
N 20.754600 29.853400 24.019200
N 22.145300 30.347500 23.894800
N 19.834900 26.372000 25.045500
N 20.534800 25.875200 24.660600
N 21.204400 26.285500 25.263300
N 20.578800 25.386700 25.659900
N 21.514000 25.430200 24.270900
N 23.017800 25.362600 25.188200
N 22.503000 25.014400 24.432000
N 19.704700 27.356700 25.254400
N 23.240400 27.726600 25.136800
N 22.580800 28.002400 24.531200
N 23.856600 27.530200 24.381600
N 24.351100 26.646500 24.357100
N 24.751000 27.427400 24.631200
N 21.559200 29.722600 24.487800
N 21.863100 28.521400 24.856100
N 22.367300 29.139600 24.300200
N 21.249100 30.667400 24.549600
N 20.740000 30.141700 25.142600
N 20.761000 31.037300 25.500500
N 22.558800 31.232700 25.253800
N 23.162200 30.810900 25.851700
N 22.307000 31.130100 24.310500
N 23.446500 30.808300 24.936700
N 24.035500 30.327000 25.487300
N 19.766500 25.588300 26.171300
N 21.198600 25.954100 26.269100
N 21.040000 25.681200 27.161900
N 20.366700 26.590300 26.114100
N 20.640900 25.027500 26.587200
N 20.240600 25.955500 26.910300
N 22.732400 25.038600 26.057100
N 23.330200 25.996000 25.882700
N 23.873500 24.993600 26.010600
N 23.683100 26.513200 26.601700
N 19.860900 27.349300 26.195900
N 21.531100 26.622900 26.885700
N 21.511900 26.818500 25.946900
N 21.019300 27.625600 26.723400
N 20.477100 26.906400 27.022300
N 22.016900 27.363300 26.489200
N 21.885200 27.194000 27.537400
N 24.628200 26.624200 26.563000
N 24.106000 27.227500 27.274700
N 23.797000 28.109100 27.379600
N 19.887000 29.291900 27.199100
N 21.656800 28.332300 26.587100
N 20.759100 28.586200 26.736200
N 24.500700 29.789800 27.262800
N 20.278000 30.551000 27.192700
N 20.241000 30.837500 26.266700
N 22.105400 31.164000 27.214200
N 23.045000 30.759200 27.033300
N 23.692800 30.261200 27.481400
N 23.896200 30.360400 26.469000
N 24.739600 30.016700 26.200100
N 17.275000 31.779900 27.240700
N 18.177000 31.488300 27.058900
N 20.022500 31.656800 27.301500
N 20.657500 31.704500 26.610100
N 21.312800 32.699300 26.307900
N 21.194000 31.505900 27.352500
N 22.708600 31.853300 27.632500
N 22.774500 32.567500 27.061200
N 21.867100 32.031300 26.894800
N 23.012700 32.906500 26.165200
N 23.701700 32.119300 27.295000
N 23.601200 33.057700 27.303000
N 21.430200 26.408500 27.869200
N 20.454600 26.249100 27.795600
N 20.805100 28.187900 28.581500
N 21.051100 27.424600 29.138100
N 21.034900 27.398000 27.893100
N 22.325800 27.609700 29.365100
N 24.769800 27.738300 27.810300
N 21.666100 28.260100 29.134100
N 21.218900 29.132700 28.667000
N 21.552100 28.307300 27.896100
N 20.577000 28.832500 27.720900
N 21.799800 29.139900 29.401000
N 22.319000 28.742700 28.294900
N 23.119700 28.461800 27.919800
N 24.938800 29.308600 28.806100
N 24.610800 28.487100 29.126200
N 24.390000 29.816600 28.184200
N 19.799200 29.944600 28.006100
N 20.363200 31.042000 28.006100
N 20.155000 30.406300 28.904300
N 20.723600 29.868400 28.273500
N 21.226700 30.994900 28.689500
N 21.103300 29.932000 29.293000
N 20.207500 31.348100 29.157200
N 21.901900 31.307500 28.156300
N 22.710100 30.685300 27.924400
N 22.618000 30.709100 28.973700
N 23.393400 30.347000 28.572700
N 23.591800 31.395500 29.113900
N 23.427400 31.256300 28.081600
N 24.174900 30.563500 29.167500
N 24.365200 30.789700 28.171400
N 19.951400 31.961700 28.297200
N 20.870300 31.919600 28.386700
N 20.749300 32.343200 29.227200
N 22.710700 31.757900 28.602900
N 22.658700 32.664600 28.770400
N 23.556300 32.344800 29.259500
N 23.521700 32.198100 28.229300
N 24.661800 32.134900 28.953100
N 17.652000 25.478900 30.929600
N 18.509800 25.104600 30.687900
N 20.697800 25.552300 30.347400
N 21.490500 25.942000 29.950100
N 20.903800 26.576600 30.762400
N 23.486200 26.327700 29.527400
N 24.387700 25.197800 30.920500
N 24.063500 26.420400 31.156800
N 21.688400 26.852300 29.662300
N 22.796300 26.914700 29.825000
N 21.817400 27.695900 31.173000
N 24.611900 27.361900 31.096900
N 21.121200 28.570100 30.589200
N 20.922700 29.326700 29.995300
N 20.822300 29.223400 31.184100
N 21.879300 29.503600 30.825500
N 22.650400 29.758700 30.157900
N 22.771500 29.425700 31.002200
N 22.267400 28.542000 31.138700
N 19.375700 30.881000 30.651700
N 19.469700 30.702500 29.665300
N 19.531700 29.844900 31.058400
N 20.307400 30.120800 29.745000
N 21.154200 31.416300 29.536700
N 20.243200 30.457300 30.943500
N 22.102500 31.245100 29.647400
N 21.924500 30.117600 29.668800
N 23.350300 30.281100 30.891600
N 24.060300 30.375200 30.257600
N 24.429100 31.314900 30.846100
N 23.379400 31.120900 31.208800
N 24.968000 30.570600 30.013300
N 17.903900 32.690200 31.101400
N 18.832500 32.322300 30.215700
N 18.887400 31.815700 31.069700
N 19.990200 31.714900 31.039500
N 19.744400 31.993000 30.192100
N 19.676000 33.054300 30.236300
N 20.572100 32.701800 31.066200
N 20.772500 32.026800 30.485000
N 20.582200 32.921300 30.017900
N 22.647300 32.126400 29.604600
N 23.372100 32.814400 30.096800
N 23.386400 31.737600 30.158400
N 23.669400 31.967300 31.073200
N 24.395300 31.549400 29.659900
N 18.045700 25.002500 31.740100
N 20.772300 26.098600 31.583300
N 20.523300 26.446200 32.692700
N 21.660700 26.348700 32.432900
N 21.874000 25.248100 32.049700
N 22.575200 25.804600 32.381500
N 23.256300 26.301600 31.925100
N 24.152700 25.639600 31.741200
N 23.557800 26.453400 32.893100
N 19.928000 27.707000 32.006700
N 20.282200 27.333500 32.971000
N 20.184800 26.841300 31.684200
N 20.757000 27.835100 31.543000
N 21.301800 27.005700 31.553800
N 20.940200 27.987500 32.474200
N 22.302100 26.672300 33.059700
N 22.965900 27.038400 32.462900
N 22.742500 27.793900 33.019800
N 23.733700 27.101600 31.761400
N 24.216000 27.080800 32.831200
N 23.508500 28.056700 32.496200
N 24.305900 28.178100 31.755200
N 18.250400 29.351000 33.011200
N 17.567100 29.826000 32.485800
N 18.880800 28.647300 32.960300
N 19.692500 29.022800 31.566500
N 19.638800 29.143700 32.675800
N 20.397100 28.664100 32.128100
N 21.622300 28.413600 31.839900
N 21.284600 29.192900 32.321400
N 20.348900 29.651300 31.924500
N 23.166900 28.786200 33.025600
N 22.099200 29.380700 31.751000
N 24.053700 28.898900 32.292100
N 24.853600 28.976700 31.547700
N 24.709100 29.752800 32.214700
N 23.862700 29.654900 32.834400
N 17.699900 30.758300 32.179700
N 21.513800 31.201000 32.546900
N 21.234100 30.151700 31.475000
N 20.844900 30.533800 32.320300
N 20.785400 31.200900 31.405500
N 21.733600 31.120500 31.608200
N 20.258600 29.835600 32.959200
N 22.457300 31.270500 32.998800
N 21.914200 30.270700 32.226400
N 22.684400 30.199800 31.633200
N 22.824300 31.198100 32.123500
N 23.624800 31.424100 32.578600
N 24.509100 30.519100 32.803900
N 24.345900 31.347600 31.743500
N 17.884700 32.538200 32.260300
N 18.755600 32.206800 31.900700
N 20.284200 32.094600 32.958500
N 20.165800 31.444100 32.305100
N 20.969800 31.931300 31.953100
N 22.963400 32.251300 33.005800
N 22.376800 32.971000 32.567400
N 27.924500 1.478890 1.886280
N 27.495200 0.858645 1.192590
N 27.925700 1.617670 0.862962
N 28.366800 2.208870 1.492650
N 28.888300 1.306320 1.714070
N 29.387100 2.132150 1.831360
N 32.890300 1.309650 1.979730
N 29.034200 2.810790 2.390380
N 29.627400 3.852070 1.418310
N 28.970800 3.160740 1.366360
N 29.556400 2.749510 0.766061
N 31.110000 3.636470 1.547210
N 30.431700 3.742150 0.900675
N 25.457100 5.345270 1.136250
N 26.962100 5.495350 0.773048
N 29.462400 4.955130 1.258440
N 29.667600 5.451100 2.062620
N 28.630100 4.116720 0.968221
N 29.415900 6.755880 1.589040
N 30.590200 6.874730 2.296850
N 31.370200 6.733290 1.289050
N 25.041700 7.980330 0.789650
N 26.146300 7.673720 1.044360
N 25.106900 7.431570 2.379380
N 27.595600 7.775030 2.067160
N 26.727100 8.388970 1.309010
N 27.851900 8.221030 1.250040
N 28.792900 8.647700 1.297560
N 28.773700 7.718700 1.346710
N 29.646700 7.938930 1.083340
N 29.844300 7.452630 2.103870
N 31.278700 7.935560 1.292580
N 32.022000 7.389900 1.636600
N 25.873100 1.215010 3.143250
N 26.363800 1.997450 3.476100
N 27.617400 0.945563 3.668050
N 28.053700 1.204020 2.890320
N 28.179100 2.104820 3.492820
N 27.243200 2.023750 3.794540
N 28.567400 1.991380 2.557370
N 28.766200 1.791890 4.296800
N 30.008400 0.844046 4.099590
N 28.155900 3.585320 3.817640
N 28.226400 2.917480 3.038560
N 28.731900 3.737810 3.086390
N 29.046700 3.778810 4.121620
N 25.295600 6.702990 3.018350
N 29.905100 6.253260 2.544080
N 27.772500 2.220090 4.624760
N 27.552900 2.234470 5.614790
N 29.738900 1.781070 4.466940
N 29.110100 0.754398 4.442100
N 29.156900 3.025170 5.884890
N 28.945500 3.546120 5.104480
N 28.944300 2.652040 6.814610
N 28.726300 3.525570 6.576990
N 28.230100 2.585990 6.189250
N 25.306600 0.910111 26.876900
N 25.146500 1.669210 26.350000
N 30.505400 3.636300 27.654900
N 30.994700 3.052160 26.949300
N 32.006800 3.743020 26.292000
N 31.727700 2.865620 26.059300
N 31.694300 2.406200 26.905400
N 25.514400 4.651870 27.637300
N 26.004600 2.866040 29.087900
N 30.225800 3.783650 28.540800
N 25.123200 5.443050 28.199000
N 26.411800 4.961050 29.253700
N 30.330400 4.492360 29.241600
N 25.608500 6.288460 28.097000
N 25.752300 5.745200 28.852400
N 25.701100 6.707660 29.054500
N 32.257500 6.989190 29.212400
N 32.038900 7.912190 29.416100
N 26.606800 1.626940 29.536500
N 27.486300 1.317860 29.650700
N 27.002300 1.291970 30.451400
N 29.889600 1.757440 29.898000
N 30.726700 1.334790 29.850200
N 30.618300 1.630170 30.749000
N 26.207400 2.461140 29.916200
N 27.649800 3.530490 30.010100
N 27.488300 3.726180 30.921800
N 29.246000 2.464130 29.979200
N 29.300400 3.083420 30.655300
N 28.479800 3.706180 30.446600
N 30.209400 3.632810 31.048000
N 30.061000 2.518440 30.850900
N 26.347500 4.034600 30.594100
N 25.911200 4.338070 29.743700
N 26.543600 5.470060 31.116300
N 27.115300 4.649130 31.173600
N 31.010500 4.129030 31.148700
N 30.882600 5.203780 29.882900
N 30.511300 4.371450 30.147200
N 31.753300 5.491740 30.529800
N 32.213900 4.105680 31.260800
N 25.145900 6.300900 29.658500
N 26.075500 5.969110 29.749700
N 26.200300 6.348150 30.658900
N 25.624000 7.098060 30.979300
N 31.071700 6.383420 30.143800
N 30.617500 5.693630 30.703700
N 31.494000 6.260430 31.006700
N 31.629100 7.095080 29.900100
N 25.216900 8.285380 30.929000
N 25.697300 8.356720 30.107900
N 26.279900 8.219130 30.847200
N 26.708200 7.380630 30.620900
N 28.173400 8.638040 31.049800
N 27.429600 7.972180 30.861500
N 28.447300 7.845160 30.654000
N 29.294500 8.400180 31.149700
N 29.016300 8.581340 30.231100
N 29.903000 8.543570 29.690000
N 32.058200 7.195970 31.114700
N 32.542600 8.667270 29.690200
N 27.837500 1.720570 32.156800
N 27.362000 1.009860 32.593000
N 28.300700 0.797332 32.652800
N 28.322900 1.117770 31.583600
N 29.026100 1.977320 32.132900
N 29.143400 0.805984 32.084900
N 28.975400 1.366990 33.058800
N 30.064600 1.693720 31.543700
N 30.048900 2.290570 32.429900
N 32.852500 1.078570 31.358300
N 32.246400 1.197510 32.087700
N 32.619000 1.331450 32.958200
N 32.154100 2.159680 32.696500
N 33.054200 1.935140 32.412100
N 26.687400 3.804430 31.463100
N 28.264800 3.468760 31.437500
N 29.510300 2.755620 31.734400
N 29.159300 3.826800 31.611100
N 28.309400 2.572910 31.848500
N 28.305800 2.406190 32.827500
N 28.781100 3.177440 32.546600
N 30.649300 2.735590 31.557800
N 30.291500 3.289580 32.340200
N 31.120000 3.585670 31.987100
N 32.356900 3.039310 32.820200
N 32.289600 3.222640 31.916600
N 31.455000 3.731810 33.001800
N 25.950000 4.470560 32.883700
N 25.223600 4.708960 32.318500
N 26.311600 5.226490 32.246700
N 26.714100 4.353740 32.275400
N 27.604000 4.207290 31.866100
N 28.104900 5.115380 32.049200
N 27.194700 5.376930 31.941800
N 27.858300 5.318500 33.011300
N 28.827200 4.944520 32.867200
N 29.361300 4.124060 32.684600
N 28.484100 4.072550 32.231700
N 30.898300 5.304630 31.544100
N 29.980500 4.203990 31.790700
N 30.075900 4.803610 32.663400
N 30.908000 4.407790 32.504800
N 30.809500 5.495580 32.497100
N 32.053800 4.133250 32.171400
N 31.952400 5.091560 31.395500
N 25.610600 6.659180 31.815700
N 25.729200 5.715610 31.561200
N 25.974000 5.830560 32.859100
N 27.358500 6.354070 32.987700
N 27.940300 7.110570 31.443900
N 27.644500 7.115040 32.479300
N 26.651800 6.355270 32.146400
N 27.757800 6.170910 31.898200
N 27.016000 7.118950 31.629600
N 29.715300 5.719470 33.052500
N 28.598800 5.880510 31.546400
N 28.485200 6.830720 32.222500
N 28.987300 5.892530 32.405700
N 29.312800 6.973860 32.996700
N 30.127600 6.437270 32.641700
N 31.335200 7.027400 31.814800
N 31.157700 6.497680 32.730100
N 32.274600 6.781170 31.982100
N 31.507300 5.966330 31.992900
N 26.554000 7.301210 32.508000
N 25.974800 8.283550 32.628000